! TOUCHSTONE file generated by CST DESIGN STUDIO
! Date and time: Tue Feb 27 15:32:51 2018
! Project name:  Project name: U:\2019-testing\PCBS-part-import\AcceptanceTest\cap-ds.cst
! Tree item: Tasks\SPara1\S-Parameters
! Header version: 2018
! Port assignment regex: !\s*Touchstone port\s*([0-9]+)\s*=\s*(CST MWS port|CST DS port)\s*([0-9]+)\s*\(\"(.*)\"\)(\s*mode\s*([0-9]+))?.*
! Touchstone port assignment:
! Touchstone port 1 = CST DS port 1 ("")
! Touchstone port 2 = CST DS port 2 ("")
# GHz S MA R 50
0                              1               0        1.001e-08               0        1.001e-08               0                1               0
0.001                   0.999999         -0.0792        0.0013823         89.9203        0.0013823         89.9203         0.999999         -0.0792
0.002                   0.999996         -0.1584       0.00276459         89.8412       0.00276459         89.8412         0.999996         -0.1584
0.003                   0.999991       -0.237599       0.00414687          89.762       0.00414687          89.762         0.999991       -0.237599
0.004                   0.999985       -0.316797       0.00552912         89.6828       0.00552912         89.6828         0.999985       -0.316797
0.005                   0.999976       -0.395994       0.00691134         89.6035       0.00691134         89.6035         0.999976       -0.395994
0.006                   0.999966       -0.475189       0.00829352         89.5243       0.00829352         89.5243         0.999966       -0.475189
0.007                   0.999953       -0.554383       0.00967566          89.445       0.00967566          89.445         0.999953       -0.554383
0.008                   0.999939       -0.633575        0.0110577         89.3657        0.0110577         89.3657         0.999939       -0.633575
0.009                   0.999922       -0.712764        0.0124398         89.2865        0.0124398         89.2865         0.999922       -0.712764
0.01                    0.999904       -0.791951        0.0138217         89.2072        0.0138217         89.2072         0.999904       -0.791951
0.011                   0.999884       -0.871135        0.0152036          89.128        0.0152036          89.128         0.999884       -0.871135
0.012                   0.999862       -0.950315        0.0165854         89.0487        0.0165854         89.0487         0.999862       -0.950315
0.013                   0.999838        -1.02949        0.0179671         88.9694        0.0179671         88.9694         0.999838        -1.02949
0.014                   0.999812        -1.10867        0.0193487         88.8902        0.0193487         88.8902         0.999812        -1.10867
0.015                   0.999785        -1.18783        0.0207301         88.8109        0.0207301         88.8109         0.999785        -1.18783
0.016                   0.999755          -1.267        0.0221115         88.7317        0.0221115         88.7317         0.999755          -1.267
0.017                   0.999723        -1.34616        0.0234928         88.6525        0.0234928         88.6525         0.999723        -1.34616
0.018                    0.99969        -1.42531        0.0248739         88.5732        0.0248739         88.5732          0.99969        -1.42531
0.019                   0.999655        -1.50446        0.0262548          88.494        0.0262548          88.494         0.999655        -1.50446
0.02                    0.999617        -1.58361        0.0276357         88.4148        0.0276357         88.4148         0.999617        -1.58361
0.021                   0.999578        -1.66275        0.0290163         88.3356        0.0290163         88.3356         0.999578        -1.66275
0.022                   0.999537        -1.74188        0.0303968         88.2564        0.0303968         88.2564         0.999537        -1.74188
0.023                   0.999494          -1.821        0.0317772         88.1772        0.0317772         88.1772         0.999494          -1.821
0.024                   0.999449        -1.90012        0.0331573          88.098        0.0331573          88.098         0.999449        -1.90012
0.025                   0.999402        -1.97923        0.0345373         88.0188        0.0345373         88.0188         0.999402        -1.97923
0.026                   0.999353        -2.05834        0.0359171         87.9396        0.0359171         87.9396         0.999353        -2.05834
0.027                   0.999303        -2.13744        0.0372966         87.8604        0.0372966         87.8604         0.999303        -2.13744
0.028                    0.99925        -2.21653         0.038676         87.7812         0.038676         87.7812          0.99925        -2.21653
0.029                   0.999196        -2.29561        0.0400552         87.7021        0.0400552         87.7021         0.999196        -2.29561
0.03                     0.99914        -2.37468        0.0414341         87.6229        0.0414341         87.6229          0.99914        -2.37468
0.031                   0.999081        -2.45374        0.0428128         87.5438        0.0428128         87.5438         0.999081        -2.45374
0.032                   0.999021         -2.5328        0.0441912         87.4647        0.0441912         87.4647         0.999021         -2.5328
0.033                   0.998959        -2.61184        0.0455694         87.3855        0.0455694         87.3855         0.998959        -2.61184
0.034                   0.998895        -2.69088        0.0469474         87.3064        0.0469474         87.3064         0.998895        -2.69088
0.035                   0.998829         -2.7699        0.0483251         87.2273        0.0483251         87.2273         0.998829         -2.7699
0.036                   0.998762        -2.84892        0.0497025         87.1482        0.0497025         87.1482         0.998762        -2.84892
0.037                   0.998692        -2.92792        0.0510796         87.0691        0.0510796         87.0691         0.998692        -2.92792
0.038                    0.99862        -3.00692        0.0524565         86.9901        0.0524565         86.9901          0.99862        -3.00692
0.039                   0.998547         -3.0859         0.053833          86.911         0.053833          86.911         0.998547         -3.0859
0.04                    0.998472        -3.16487        0.0552093          86.832        0.0552093          86.832         0.998472        -3.16487
0.041                   0.998395        -3.24383        0.0565853         86.7529        0.0565853         86.7529         0.998395        -3.24383
0.042                   0.998315        -3.32278        0.0579609         86.6739        0.0579609         86.6739         0.998315        -3.32278
0.043                   0.998235        -3.40171        0.0593362         86.5949        0.0593362         86.5949         0.998235        -3.40171
0.044                   0.998152        -3.48063        0.0607112         86.5159        0.0607112         86.5159         0.998152        -3.48063
0.045                   0.998067        -3.55954        0.0620858         86.4369        0.0620858         86.4369         0.998067        -3.55954
0.046                    0.99798        -3.63844        0.0634601         86.3579        0.0634601         86.3579          0.99798        -3.63844
0.047                   0.997892        -3.71732        0.0648341         86.2789        0.0648341         86.2789         0.997892        -3.71732
0.048                   0.997801        -3.79619        0.0662076            86.2        0.0662076            86.2         0.997801        -3.79619
0.049                   0.997709        -3.87505        0.0675808         86.1211        0.0675808         86.1211         0.997709        -3.87505
0.05                    0.997615        -3.95389        0.0689537         86.0421        0.0689537         86.0421         0.997615        -3.95389
0.051                   0.997519        -4.03272        0.0703261         85.9632        0.0703261         85.9632         0.997519        -4.03272
0.052                   0.997421        -4.11153        0.0716982         85.8843        0.0716982         85.8843         0.997421        -4.11153
0.053                   0.997321        -4.19033        0.0730698         85.8055        0.0730698         85.8055         0.997321        -4.19033
0.054                    0.99722        -4.26911        0.0744411         85.7266        0.0744411         85.7266          0.99722        -4.26911
0.055                   0.997116        -4.34787        0.0758119         85.6478        0.0758119         85.6478         0.997116        -4.34787
0.056                   0.997011        -4.42662        0.0771823         85.5689        0.0771823         85.5689         0.997011        -4.42662
0.057                   0.996904        -4.50536        0.0785523         85.4901        0.0785523         85.4901         0.996904        -4.50536
0.058                   0.996795        -4.58407        0.0799219         85.4113        0.0799219         85.4113         0.996795        -4.58407
0.059                   0.996684        -4.66277         0.081291         85.3325         0.081291         85.3325         0.996684        -4.66277
0.06                    0.996571        -4.74146        0.0826596         85.2538        0.0826596         85.2538         0.996571        -4.74146
0.061                   0.996456        -4.82012        0.0840278          85.175        0.0840278          85.175         0.996456        -4.82012
0.062                    0.99634        -4.89877        0.0853956         85.0963        0.0853956         85.0963          0.99634        -4.89877
0.063                   0.996221         -4.9774        0.0867628         85.0176        0.0867628         85.0176         0.996221         -4.9774
0.064                   0.996101        -5.05601        0.0881296         84.9389        0.0881296         84.9389         0.996101        -5.05601
0.065                   0.995979        -5.13461        0.0894959         84.8602        0.0894959         84.8602         0.995979        -5.13461
0.066                   0.995855        -5.21318        0.0908617         84.7816        0.0908617         84.7816         0.995855        -5.21318
0.067                   0.995729        -5.29174         0.092227          84.703         0.092227          84.703         0.995729        -5.29174
0.068                   0.995602        -5.37027        0.0935917         84.6243        0.0935917         84.6243         0.995602        -5.37027
0.069                   0.995472        -5.44879         0.094956         84.5457         0.094956         84.5457         0.995472        -5.44879
0.07                    0.995341        -5.52728        0.0963197         84.4672        0.0963197         84.4672         0.995341        -5.52728
0.071                   0.995208        -5.60576        0.0976829         84.3886        0.0976829         84.3886         0.995208        -5.60576
0.072                   0.995073        -5.68422        0.0990456         84.3101        0.0990456         84.3101         0.995073        -5.68422
0.073                   0.994936        -5.76265         0.100408         84.2316         0.100408         84.2316         0.994936        -5.76265
0.074                   0.994798        -5.84106         0.101769         84.1531         0.101769         84.1531         0.994798        -5.84106
0.075                   0.994657        -5.91946          0.10313         84.0746          0.10313         84.0746         0.994657        -5.91946
0.076                   0.994515        -5.99783         0.104491         83.9961         0.104491         83.9961         0.994515        -5.99783
0.077                   0.994371        -6.07618         0.105851         83.9177         0.105851         83.9177         0.994371        -6.07618
0.078                   0.994225         -6.1545          0.10721         83.8393          0.10721         83.8393         0.994225         -6.1545
0.079                   0.994077        -6.23281         0.108569         83.7609         0.108569         83.7609         0.994077        -6.23281
0.08                    0.993928        -6.31109         0.109927         83.6826         0.109927         83.6826         0.993928        -6.31109
0.081                   0.993776        -6.38935         0.111284         83.6042         0.111284         83.6042         0.993776        -6.38935
0.082                   0.993623        -6.46758         0.112641         83.5259         0.112641         83.5259         0.993623        -6.46758
0.083                   0.993468         -6.5458         0.113997         83.4476         0.113997         83.4476         0.993468         -6.5458
0.084                   0.993311        -6.62398         0.115353         83.3694         0.115353         83.3694         0.993311        -6.62398
0.085                   0.993153        -6.70215         0.116708         83.2911         0.116708         83.2911         0.993153        -6.70215
0.086                   0.992992        -6.78029         0.118062         83.2129         0.118062         83.2129         0.992992        -6.78029
0.087                    0.99283         -6.8584         0.119416         83.1347         0.119416         83.1347          0.99283         -6.8584
0.088                   0.992666        -6.93649         0.120769         83.0565         0.120769         83.0565         0.992666        -6.93649
0.089                     0.9925        -7.01456         0.122122         82.9784         0.122122         82.9784           0.9925        -7.01456
0.09                    0.992333         -7.0926         0.123473         82.9003         0.123473         82.9003         0.992333         -7.0926
0.091                   0.992163        -7.17061         0.124824         82.8222         0.124824         82.8222         0.992163        -7.17061
0.092                   0.991992         -7.2486         0.126175         82.7441         0.126175         82.7441         0.991992         -7.2486
0.093                   0.991819        -7.32656         0.127524         82.6661         0.127524         82.6661         0.991819        -7.32656
0.094                   0.991644         -7.4045         0.128873          82.588         0.128873          82.588         0.991644         -7.4045
0.095                   0.991468        -7.48241         0.130222         82.5101         0.130222         82.5101         0.991468        -7.48241
0.096                   0.991289        -7.56029         0.131569         82.4321         0.131569         82.4321         0.991289        -7.56029
0.097                   0.991109        -7.63814         0.132916         82.3542         0.132916         82.3542         0.991109        -7.63814
0.098                   0.990928        -7.71597         0.134262         82.2763         0.134262         82.2763         0.990928        -7.71597
0.099                   0.990744        -7.79377         0.135608         82.1984         0.135608         82.1984         0.990744        -7.79377
0.1                     0.990559        -7.87154         0.136953         82.1205         0.136953         82.1205         0.990559        -7.87154
0.101                   0.990372        -7.94928         0.138296         82.0427         0.138296         82.0427         0.990372        -7.94928
0.102                   0.990183          -8.027          0.13964         81.9649          0.13964         81.9649         0.990183          -8.027
0.103                   0.989992        -8.10468         0.140982         81.8872         0.140982         81.8872         0.989992        -8.10468
0.104                     0.9898        -8.18234         0.142324         81.8094         0.142324         81.8094           0.9898        -8.18234
0.105                   0.989606        -8.25997         0.143665         81.7317         0.143665         81.7317         0.989606        -8.25997
0.106                    0.98941        -8.33756         0.145005          81.654         0.145005          81.654          0.98941        -8.33756
0.107                   0.989212        -8.41513         0.146344         81.5764         0.146344         81.5764         0.989212        -8.41513
0.108                   0.989013        -8.49267         0.147683         81.4988         0.147683         81.4988         0.989013        -8.49267
0.109                   0.988812        -8.57017         0.149021         81.4212         0.149021         81.4212         0.988812        -8.57017
0.11                    0.988609        -8.64765         0.150358         81.3436         0.150358         81.3436         0.988609        -8.64765
0.111                   0.988404        -8.72509         0.151694         81.2661         0.151694         81.2661         0.988404        -8.72509
0.112                   0.988198        -8.80251         0.153029         81.1886         0.153029         81.1886         0.988198        -8.80251
0.113                    0.98799        -8.87989         0.154364         81.1111         0.154364         81.1111          0.98799        -8.87989
0.114                    0.98778        -8.95724         0.155697         81.0337         0.155697         81.0337          0.98778        -8.95724
0.115                   0.987569        -9.03456          0.15703         80.9563          0.15703         80.9563         0.987569        -9.03456
0.116                   0.987356        -9.11185         0.158362          80.879         0.158362          80.879         0.987356        -9.11185
0.117                   0.987141         -9.1891         0.159693         80.8016         0.159693         80.8016         0.987141         -9.1891
0.118                   0.986924        -9.26632         0.161024         80.7243         0.161024         80.7243         0.986924        -9.26632
0.119                   0.986706        -9.34351         0.162353         80.6471         0.162353         80.6471         0.986706        -9.34351
0.12                    0.986486        -9.42067         0.163682         80.5698         0.163682         80.5698         0.986486        -9.42067
0.121                   0.986264        -9.49779          0.16501         80.4926          0.16501         80.4926         0.986264        -9.49779
0.122                   0.986041        -9.57488         0.166336         80.4154         0.166336         80.4154         0.986041        -9.57488
0.123                   0.985816        -9.65193         0.167662         80.3383         0.167662         80.3383         0.985816        -9.65193
0.124                   0.985589        -9.72895         0.168987         80.2612         0.168987         80.2612         0.985589        -9.72895
0.125                   0.985361        -9.80594         0.170312         80.1841         0.170312         80.1841         0.985361        -9.80594
0.126                   0.985131        -9.88289         0.171635         80.1071         0.171635         80.1071         0.985131        -9.88289
0.127                   0.984899         -9.9598         0.172957         80.0301         0.172957         80.0301         0.984899         -9.9598
0.128                   0.984665        -10.0367         0.174279         79.9532         0.174279         79.9532         0.984665        -10.0367
0.129                    0.98443        -10.1135         0.175599         79.8762         0.175599         79.8762          0.98443        -10.1135
0.13                    0.984194        -10.1903         0.176919         79.7993         0.176919         79.7993         0.984194        -10.1903
0.131                   0.983955        -10.2671         0.178237         79.7225         0.178237         79.7225         0.983955        -10.2671
0.132                   0.983715        -10.3439         0.179555         79.6457         0.179555         79.6457         0.983715        -10.3439
0.133                   0.983473        -10.4206         0.180872         79.5689         0.180872         79.5689         0.983473        -10.4206
0.134                    0.98323        -10.4972         0.182188         79.4922         0.182188         79.4922          0.98323        -10.4972
0.135                   0.982985        -10.5738         0.183503         79.4154         0.183503         79.4154         0.982985        -10.5738
0.136                   0.982738        -10.6504         0.184817         79.3388         0.184817         79.3388         0.982738        -10.6504
0.137                    0.98249         -10.727         0.186129         79.2621         0.186129         79.2621          0.98249         -10.727
0.138                    0.98224        -10.8035         0.187441         79.1855         0.187441         79.1855          0.98224        -10.8035
0.139                   0.981988          -10.88         0.188752          79.109         0.188752          79.109         0.981988          -10.88
0.14                    0.981735        -10.9564         0.190062         79.0325         0.190062         79.0325         0.981735        -10.9564
0.141                    0.98148        -11.0328         0.191371          78.956         0.191371          78.956          0.98148        -11.0328
0.142                   0.981224        -11.1092         0.192679         78.8795         0.192679         78.8795         0.981224        -11.1092
0.143                   0.980966        -11.1855         0.193986         78.8031         0.193986         78.8031         0.980966        -11.1855
0.144                   0.980706        -11.2618         0.195292         78.7268         0.195292         78.7268         0.980706        -11.2618
0.145                   0.980445         -11.338         0.196597         78.6505         0.196597         78.6505         0.980445         -11.338
0.146                   0.980182        -11.4142         0.197901         78.5742         0.197901         78.5742         0.980182        -11.4142
0.147                   0.979917        -11.4904         0.199204         78.4979         0.199204         78.4979         0.979917        -11.4904
0.148                   0.979651        -11.5665         0.200506         78.4217         0.200506         78.4217         0.979651        -11.5665
0.149                   0.979384        -11.6426         0.201807         78.3455         0.201807         78.3455         0.979384        -11.6426
0.15                    0.979114        -11.7187         0.203106         78.2694         0.203106         78.2694         0.979114        -11.7187
0.151                   0.978844        -11.7947         0.204405         78.1933         0.204405         78.1933         0.978844        -11.7947
0.152                   0.978571        -11.8706         0.205703         78.1173         0.205703         78.1173         0.978571        -11.8706
0.153                   0.978297        -11.9466         0.206999         78.0413         0.206999         78.0413         0.978297        -11.9466
0.154                   0.978022        -12.0225         0.208295         77.9653         0.208295         77.9653         0.978022        -12.0225
0.155                   0.977744        -12.0983         0.209589         77.8894         0.209589         77.8894         0.977744        -12.0983
0.156                   0.977466        -12.1741         0.210883         77.8135         0.210883         77.8135         0.977466        -12.1741
0.157                   0.977186        -12.2498         0.212175         77.7377         0.212175         77.7377         0.977186        -12.2498
0.158                   0.976904        -12.3256         0.213466         77.6619         0.213466         77.6619         0.976904        -12.3256
0.159                    0.97662        -12.4012         0.214756         77.5861         0.214756         77.5861          0.97662        -12.4012
0.16                    0.976335        -12.4769         0.216045         77.5104         0.216045         77.5104         0.976335        -12.4769
0.161                   0.976049        -12.5525         0.217333         77.4348         0.217333         77.4348         0.976049        -12.5525
0.162                   0.975761         -12.628          0.21862         77.3591          0.21862         77.3591         0.975761         -12.628
0.163                   0.975471        -12.7035         0.219906         77.2836         0.219906         77.2836         0.975471        -12.7035
0.164                    0.97518         -12.779          0.22119          77.208          0.22119          77.208          0.97518         -12.779
0.165                   0.974888        -12.8544         0.222474         77.1325         0.222474         77.1325         0.974888        -12.8544
0.166                   0.974594        -12.9297         0.223756         77.0571         0.223756         77.0571         0.974594        -12.9297
0.167                   0.974298        -13.0051         0.225037         76.9817         0.225037         76.9817         0.974298        -13.0051
0.168                   0.974001        -13.0803         0.226317         76.9063         0.226317         76.9063         0.974001        -13.0803
0.169                   0.973702        -13.1556         0.227596          76.831         0.227596          76.831         0.973702        -13.1556
0.17                    0.973402        -13.2308         0.228874         76.7557         0.228874         76.7557         0.973402        -13.2308
0.171                   0.973101        -13.3059          0.23015         76.6805          0.23015         76.6805         0.973101        -13.3059
0.172                   0.972797         -13.381         0.231426         76.6053         0.231426         76.6053         0.972797         -13.381
0.173                   0.972493        -13.4561           0.2327         76.5302           0.2327         76.5302         0.972493        -13.4561
0.174                   0.972187        -13.5311         0.233973         76.4551         0.233973         76.4551         0.972187        -13.5311
0.175                   0.971879        -13.6061         0.235245           76.38         0.235245           76.38         0.971879        -13.6061
0.176                    0.97157         -13.681         0.236516          76.305         0.236516          76.305          0.97157         -13.681
0.177                   0.971259        -13.7559         0.237785         76.2301         0.237785         76.2301         0.971259        -13.7559
0.178                   0.970947        -13.8307         0.239053         76.1552         0.239053         76.1552         0.970947        -13.8307
0.179                   0.970634        -13.9055         0.240321         76.0803         0.240321         76.0803         0.970634        -13.9055
0.18                    0.970319        -13.9802         0.241586         76.0055         0.241586         76.0055         0.970319        -13.9802
0.181                   0.970003        -14.0549         0.242851         75.9308         0.242851         75.9308         0.970003        -14.0549
0.182                   0.969685        -14.1295         0.244115          75.856         0.244115          75.856         0.969685        -14.1295
0.183                   0.969366        -14.2041         0.245377         75.7814         0.245377         75.7814         0.969366        -14.2041
0.184                   0.969045        -14.2786         0.246638         75.7067         0.246638         75.7067         0.969045        -14.2786
0.185                   0.968723        -14.3531         0.247898         75.6322         0.247898         75.6322         0.968723        -14.3531
0.186                   0.968399        -14.4276         0.249156         75.5576         0.249156         75.5576         0.968399        -14.4276
0.187                   0.968074         -14.502         0.250414         75.4832         0.250414         75.4832         0.968074         -14.502
0.188                   0.967748        -14.5763          0.25167         75.4087          0.25167         75.4087         0.967748        -14.5763
0.189                    0.96742        -14.6506         0.252925         75.3343         0.252925         75.3343          0.96742        -14.6506
0.19                     0.96709        -14.7249         0.254178           75.26         0.254178           75.26          0.96709        -14.7249
0.191                    0.96676        -14.7991         0.255431         75.1857         0.255431         75.1857          0.96676        -14.7991
0.192                   0.966428        -14.8733         0.256682         75.1115         0.256682         75.1115         0.966428        -14.8733
0.193                   0.966094        -14.9474         0.257932         75.0373         0.257932         75.0373         0.966094        -14.9474
0.194                   0.965759        -15.0214          0.25918         74.9632          0.25918         74.9632         0.965759        -15.0214
0.195                   0.965423        -15.0954         0.260427         74.8891         0.260427         74.8891         0.965423        -15.0954
0.196                   0.965085        -15.1694         0.261674          74.815         0.261674          74.815         0.965085        -15.1694
0.197                   0.964746        -15.2433         0.262918         74.7411         0.262918         74.7411         0.964746        -15.2433
0.198                   0.964406        -15.3171         0.264162         74.6671         0.264162         74.6671         0.964406        -15.3171